128
 Atoms. Timestep: 0
1 0 0 0
1 1.59015 1.59015 1.59015
1 3.1803 0 0
1 4.77045 1.59015 1.59015
2 6.3606 0 0
1 7.95075 1.59015 1.59015
1 9.5409 0 0
1 11.1311 1.59015 1.59015
1 0 3.1803 0
1 1.59015 4.77045 1.59015
1 3.1803 3.1803 0
1 4.77045 4.77045 1.59015
1 6.3606 3.1803 0
1 7.95075 4.77045 1.59015
1 9.5409 3.1803 0
1 11.1311 4.77045 1.59015
1 0 0 3.1803
1 1.59015 1.59015 4.77045
1 3.1803 0 3.1803
1 4.77045 1.59015 4.77045
1 6.3606 0 3.1803
1 7.95075 1.59015 4.77045
1 9.5409 0 3.1803
1 11.1311 1.59015 4.77045
1 0 3.1803 3.1803
1 1.59015 4.77045 4.77045
1 3.1803 3.1803 3.1803
1 4.77045 4.77045 4.77045
1 6.3606 3.1803 3.1803
1 7.95075 4.77045 4.77045
1 9.5409 3.1803 3.1803
1 11.1311 4.77045 4.77045
1 0 0 6.3606
1 1.59015 1.59015 7.95075
2 3.1803 0 6.3606
1 4.77045 1.59015 7.95075
1 6.3606 0 6.3606
1 7.95075 1.59015 7.95075
1 9.5409 0 6.3606
1 11.1311 1.59015 7.95075
1 0 3.1803 6.3606
1 1.59015 4.77045 7.95075
1 3.1803 3.1803 6.3606
1 4.77045 4.77045 7.95075
2 6.3606 3.1803 6.3606
1 7.95075 4.77045 7.95075
1 9.5409 3.1803 6.3606
1 11.1311 4.77045 7.95075
1 0 0 9.5409
1 1.59015 1.59015 11.1311
1 3.1803 0 9.5409
1 4.77045 1.59015 11.1311
1 6.3606 0 9.5409
1 7.95075 1.59015 11.1311
1 9.5409 0 9.5409
1 11.1311 1.59015 11.1311
1 0 3.1803 9.5409
1 1.59015 4.77045 11.1311
1 3.1803 3.1803 9.5409
1 4.77045 4.77045 11.1311
1 6.3606 3.1803 9.5409
1 7.95075 4.77045 11.1311
1 9.5409 3.1803 9.5409
1 11.1311 4.77045 11.1311
1 0 6.3606 0
1 1.59015 7.95075 1.59015
1 3.1803 6.3606 0
1 4.77045 7.95075 1.59015
1 6.3606 6.3606 0
1 7.95075 7.95075 1.59015
1 9.5409 6.3606 0
1 11.1311 7.95075 1.59015
1 0 9.5409 0
1 1.59015 11.1311 1.59015
1 3.1803 9.5409 0
1 4.77045 11.1311 1.59015
1 6.3606 9.5409 0
1 7.95075 11.1311 1.59015
1 9.5409 9.5409 0
1 11.1311 11.1311 1.59015
1 0 6.3606 3.1803
1 1.59015 7.95075 4.77045
1 3.1803 6.3606 3.1803
1 4.77045 7.95075 4.77045
1 6.3606 6.3606 3.1803
1 7.95075 7.95075 4.77045
1 9.5409 6.3606 3.1803
1 11.1311 7.95075 4.77045
1 0 9.5409 3.1803
1 1.59015 11.1311 4.77045
1 3.1803 9.5409 3.1803
1 4.77045 11.1311 4.77045
1 6.3606 9.5409 3.1803
1 7.95075 11.1311 4.77045
1 9.5409 9.5409 3.1803
1 11.1311 11.1311 4.77045
1 0 6.3606 6.3606
1 1.59015 7.95075 7.95075
1 3.1803 6.3606 6.3606
1 4.77045 7.95075 7.95075
1 6.3606 6.3606 6.3606
1 7.95075 7.95075 7.95075
1 9.5409 6.3606 6.3606
1 11.1311 7.95075 7.95075
1 0 9.5409 6.3606
1 1.59015 11.1311 7.95075
1 3.1803 9.5409 6.3606
1 4.77045 11.1311 7.95075
1 6.3606 9.5409 6.3606
1 7.95075 11.1311 7.95075
1 9.5409 9.5409 6.3606
1 11.1311 11.1311 7.95075
1 0 6.3606 9.5409
1 1.59015 7.95075 11.1311
1 3.1803 6.3606 9.5409
1 4.77045 7.95075 11.1311
1 6.3606 6.3606 9.5409
1 7.95075 7.95075 11.1311
1 9.5409 6.3606 9.5409
1 11.1311 7.95075 11.1311
1 0 9.5409 9.5409
1 1.59015 11.1311 11.1311
1 3.1803 9.5409 9.5409
1 4.77045 11.1311 11.1311
1 6.3606 9.5409 9.5409
1 7.95075 11.1311 11.1311
1 9.5409 9.5409 9.5409
1 11.1311 11.1311 11.1311
128
 Atoms. Timestep: 100
1 0.0257614 12.6886 12.6966
1 1.52688 1.67074 1.58168
1 2.94976 0.0308361 12.7192
1 4.9157 1.4455 1.36616
2 11.0238 11.8602 3.43836
1 7.86507 1.43909 1.47761
1 9.78351 0.0383079 0.00835988
1 11.1675 1.66386 1.63723
1 0.00819839 3.10556 12.7053
1 1.56824 4.78205 1.58888
1 3.24647 3.13361 12.7183
1 4.70535 4.84846 1.5953
1 6.36045 3.41935 12.7074
1 7.98916 4.83141 1.61551
1 9.47588 3.20615 12.7129
1 11.1591 4.71788 1.6653
1 0.0472198 0.0320986 3.07123
1 1.73307 1.46239 4.83578
1 3.16931 0.0353665 2.97885
1 4.75177 1.63982 4.741
1 6.45828 12.5639 3.3579
1 7.82115 1.76679 4.81319
1 9.42345 0.0547247 3.17381
1 11.1192 1.64202 4.65411
1 0.0827188 3.04957 3.31053
1 1.54615 4.80614 4.6376
1 3.22484 3.12412 3.08568
1 4.90303 4.67759 4.81136
1 6.3467 3.17427 2.96797
1 7.83684 4.59776 4.83879
1 9.45571 3.08544 3.13953
1 11.1112 4.74895 4.68247
1 12.4511 12.5499 6.13085
1 1.64455 1.41215 7.87007
2 9.51469 1.13397 7.28219
1 4.76424 1.60271 8.01871
1 6.52768 12.4789 6.40121
1 7.84691 1.76725 7.81684
1 9.46222 0.0728694 6.37529
1 11.1787 1.52683 8.02004
1 0.0878998 3.25365 6.36374
1 1.53226 4.81341 8.08073
1 3.00435 3.36544 6.38706
1 4.88816 4.63553 7.90049
2 0.124106 1.4932 3.42345
1 7.75214 4.6786 7.74389
1 9.71071 3.17417 6.3605
1 11.2021 4.72349 8.06367
1 0.0350871 0.0246907 9.59121
1 1.51525 1.6585 11.1324
1 3.19821 0.00672985 9.76604
1 4.9131 1.47761 11.3241
1 6.43454 12.6384 9.42237
1 7.84031 1.45783 11.3273
1 9.43066 0.247502 9.50363
1 11.1754 1.62908 11.0565
1 0.0528076 3.06724 9.41081
1 1.56937 4.79431 11.1282
1 3.23369 3.14413 9.63519
1 4.70887 4.88738 11.1099
1 6.34361 3.16448 9.73516
1 8.00362 4.79873 11.1345
1 9.45963 3.10703 9.56599
1 11.1444 4.73579 11.0302
1 12.6484 6.44152 12.7069
1 1.61829 7.90935 1.64837
1 3.2742 6.33979 12.7065
1 4.72275 7.90526 1.64759
1 6.42316 6.36515 12.7
1 7.95251 7.95879 1.69247
1 9.46088 6.32268 0.0321705
1 11.1194 7.97218 1.71884
1 0.00975232 9.59186 0.0120386
1 1.5746 11.2902 2.37953
1 3.1699 9.58381 12.7053
1 4.90207 11.193 1.47797
1 6.33123 9.23421 0.0386071
1 7.85988 11.1985 1.49117
1 9.59683 9.52269 0.0669962
1 11.1207 11.1159 1.68668
1 0.00528798 6.36039 3.26803
1 1.60423 7.93926 4.70252
1 3.268 6.26311 3.31369
1 4.78931 7.92921 4.70922
1 6.35074 6.35907 3.17691
1 7.97354 8.0328 4.69759
1 9.44823 6.25474 3.25506
1 11.0618 7.9689 4.67891
1 0.0772099 9.67953 3.25577
1 1.77301 11.3352 4.94703
1 3.25484 9.65092 3.2139
1 4.62142 11.1808 4.91667
1 6.31748 9.63827 3.31934
1 8.05583 10.9884 4.78114
1 9.44285 9.6524 3.13978
1 10.9974 11.1121 4.76493
1 0.0238752 6.3339 6.37516
1 1.57559 7.96943 8.05908
1 3.12426 6.331 6.36923
1 4.73876 8.00026 8.03924
1 6.31204 6.68381 6.40526
1 8.17682 7.99134 8.10007
1 9.62647 6.29961 6.28857
1 11.138 8.04598 8.08869
1 0.0849117 9.35714 6.35847
1 1.71722 11.2629 7.88721
1 3.26266 9.33244 6.35892
1 4.56634 11.2055 7.83087
1 6.28103 9.57077 6.32199
1 8.02711 10.8922 7.9703
1 9.44515 9.57698 6.30835
1 11.2363 11.0845 7.98076
1 0.000450386 6.34142 9.44493
1 1.60931 7.90755 11.0605
1 3.30204 6.25324 9.40713
1 4.70672 7.8697 11.0765
1 6.2858 6.30146 9.57168
1 8.00419 7.95272 11.0913
1 9.38139 6.18645 9.42924
1 11.1631 7.94921 10.9925
1 0.114061 9.68581 9.49512
1 1.51865 11.0956 11.1003
1 3.31904 9.67959 9.58631
1 4.89846 11.2474 11.3085
1 6.22845 9.66916 9.42162
1 7.89869 11.2914 11.3158
1 10.299 0.086046 9.16294
1 11.161 11.1576 11.0713
128
 Atoms. Timestep: 200
1 12.5342 12.6401 0.0690188
1 1.49061 1.64422 1.76506
1 2.91464 12.561 0.436912
1 5.20274 1.45862 1.15582
2 5.92593 7.25964 11.6591
1 7.91095 1.58278 1.55276
1 9.77393 12.7058 0.11496
1 10.959 1.79438 1.47266
1 0.0428335 3.18674 0.0805758
1 1.50043 4.77877 1.48241
1 3.20534 3.05768 0.0802445
1 4.87788 4.84161 1.48111
1 6.37866 3.36963 12.6865
1 8.03875 4.76139 1.46916
1 9.42416 3.19252 12.6598
1 11.0577 4.81199 1.45572
1 12.2744 0.46685 3.18777
1 1.79011 1.50077 4.90423
1 3.86144 0.698458 3.1074
1 4.97688 1.5868 5.12554
1 6.51731 0.144589 3.40593
1 7.63746 1.70046 4.91719
1 9.34299 0.112852 3.28793
1 10.7779 1.7171 4.76637
1 0.0221741 3.21007 3.34015
1 1.61758 4.84705 4.83576
1 3.42995 3.26406 3.13634
1 4.88971 4.60081 4.90468
1 6.07852 2.91169 3.05979
1 7.99482 4.74962 4.87579
1 9.3744 3.03767 3.03945
1 11.0962 4.80511 4.81571
1 12.668 12.5088 6.17031
1 1.95259 1.41042 7.83355
2 11.329 2.21518 6.44893
1 4.68891 1.47226 7.90941
1 6.63168 12.4593 6.54006
1 7.32086 1.88958 7.87741
1 9.44826 0.0270611 6.20789
1 11.2889 1.56409 7.65783
1 0.118826 3.12549 6.09271
1 1.63164 4.86007 7.93315
1 2.94 3.32953 6.27996
1 5.03988 4.56238 7.92051
2 9.9752 3.04844 10.06
1 7.84134 4.78079 8.01898
1 9.42629 3.02823 6.39023
1 11.2126 4.74086 7.6274
1 12.3693 0.194016 9.31487
1 1.7448 1.40666 11.2502
1 3.24471 0.0534794 9.63409
1 4.7122 1.47573 11.2636
1 6.335 0.00723238 9.38548
1 7.42965 1.38205 11.3377
1 9.38989 0.365786 9.35237
1 11.099 1.6521 11.1797
1 0.147623 3.0814 9.30158
1 1.71061 4.65212 11.1746
1 3.21016 2.8958 9.61148
1 4.72093 4.67289 11.0878
1 6.20008 3.08071 9.89136
1 7.86123 4.83724 11.186
1 9.36553 2.95375 9.74366
1 11.1714 4.7764 11.2084
1 12.6442 6.52837 12.6395
1 1.61359 7.85446 1.78711
1 3.09469 6.39639 12.7146
1 4.82742 7.91764 1.59793
1 6.33865 6.50981 12.5919
1 7.94515 7.84353 1.55024
1 9.60308 6.39378 12.6427
1 11.0741 7.91211 1.65868
1 12.6414 9.5637 12.6791
1 1.34791 11.0972 3.87411
1 3.16866 9.55556 0.188463
1 5.08494 11.224 1.64215
1 6.43033 9.42388 0.00426987
1 7.83334 11.353 1.49446
1 9.62161 9.59851 0.167037
1 11.0789 11.1373 1.73169
1 0.0554803 6.24031 3.26489
1 1.7101 7.91676 4.76126
1 3.4762 6.16574 3.27603
1 4.92272 7.91938 4.82675
1 6.35935 6.34555 3.16515
1 7.9367 7.97365 4.78243
1 9.44989 6.34136 3.30589
1 11.1319 7.69918 4.88608
1 12.5684 9.40312 3.2293
1 2.56181 11.8819 6.70539
1 3.43051 9.58656 3.08589
1 4.70309 11.3581 4.85763
1 6.38403 9.62547 3.35009
1 7.96338 11.1989 4.78098
1 9.40345 9.66818 3.22995
1 11.1988 11.2806 4.83017
1 0.0193433 6.6433 6.39337
1 1.80496 8.0308 7.81001
1 3.34793 6.31229 6.41789
1 4.73107 7.97089 8.02077
1 6.48073 6.43237 6.45061
1 7.86286 7.97112 7.99213
1 9.46237 6.46752 6.36813
1 10.8258 8.07504 7.71041
1 0.228759 9.72792 6.26077
1 0.448128 0.701222 10.4372
1 3.26228 9.30102 6.41306
1 4.54328 11.3527 7.88388
1 6.28115 9.6549 6.44815
1 8.22875 11.1188 8.28723
1 9.62293 9.55453 6.11608
1 11.1856 11.1563 7.80304
1 0.105482 6.29289 9.69154
1 1.69608 8.14192 11.1861
1 3.18359 6.36611 9.5428
1 4.676 8.09056 11.207
1 6.49469 6.45022 9.61555
1 8.07023 8.20044 10.8723
1 9.56228 6.29256 9.38417
1 10.9706 8.16135 11.0753
1 0.137736 9.33147 9.5897
1 1.60478 11.2138 11.1448
1 3.19114 9.71408 9.59729
1 4.8186 11.3956 11.4419
1 6.06031 9.77391 9.429
1 7.74686 11.1805 11.0393
1 3.44444 12.2075 6.89397
1 10.8755 10.9306 10.6893
128
 Atoms. Timestep: 300
1 12.5375 0.0820235 0.123595
1 1.63993 1.83738 1.74477
1 2.56558 12.3047 0.566592
1 5.27774 0.833393 0.789159
2 2.20215 11.3147 6.58536
1 7.99262 2.01978 1.53125
1 9.40013 12.5384 0.144957
1 10.9509 1.80717 1.70899
1 12.4016 2.93556 0.0410201
1 1.62047 4.86601 1.59142
1 3.43342 3.06925 0.372828
1 4.85665 5.057 1.80883
1 6.52459 3.48976 12.4792
1 7.92152 4.85066 1.74308
1 9.5944 3.28647 12.4908
1 11.0106 4.68596 1.47515
1 0.0629313 12.7031 3.08261
1 1.50303 1.72327 4.86179
1 3.69423 0.26485 3.321
1 5.07878 1.71869 5.47053
1 6.34603 0.250974 3.39243
1 8.21013 1.83599 4.77409
1 9.64799 12.7181 3.25084
1 11.2382 1.5879 4.84431
1 12.6576 3.29208 3.22053
1 1.64699 4.68717 4.73751
1 3.34338 3.24349 3.43629
1 4.88423 4.73056 4.90524
1 6.07741 3.15178 2.87675
1 7.74663 4.535 4.94617
1 9.57218 3.56225 3.32201
1 11.1242 4.6058 4.99765
1 12.5397 0.126047 6.33255
1 1.27532 1.95118 8.36196
2 11.6157 3.71823 7.35201
1 4.48769 1.83794 8.35191
1 12.0989 7.17597 11.3898
1 7.25141 1.95118 7.61065
1 9.46854 0.23552 6.54274
1 11.2308 1.87204 8.05081
1 0.243117 3.47394 6.30485
1 1.41561 4.74869 8.1943
1 2.9638 3.28678 6.59953
1 4.82848 4.67639 7.8903
2 0.436975 5.89989 11.8631
1 7.7895 4.73031 7.86005
1 9.67563 3.44609 6.58363
1 11.0602 4.95773 8.22539
1 12.6991 12.7182 9.86548
1 1.6737 1.44723 11.3076
1 2.81161 12.4305 9.48083
1 4.47655 1.63865 11.1293
1 6.43945 0.0852104 9.71053
1 8.01689 1.56282 11.4312
1 8.97904 0.480709 9.25788
1 0.203351 10.2905 2.06785
1 12.7207 3.10707 10.1927
1 1.57734 4.91395 11.2637
1 3.18183 3.54724 9.59837
1 4.57562 4.77733 11.269
1 6.39445 3.13345 9.6882
1 7.97503 4.8707 10.8162
1 9.1492 3.36047 9.54535
1 11.0758 4.91914 11.0502
1 12.6969 6.14018 12.6778
1 1.64306 7.76805 1.47826
1 3.22415 6.42389 12.7119
1 4.95207 7.95842 1.59349
1 6.5759 6.55176 12.532
1 7.88678 7.93405 1.58194
1 9.41186 6.36801 12.6159
1 10.9567 7.77981 1.4218
1 12.6508 9.6423 0.1242
1 1.83129 11.4827 4.66399
1 3.09204 9.77846 12.5764
1 5.10748 11.0076 1.65962
1 6.4809 9.47961 12.6407
1 8.04241 11.1422 1.63507
1 9.62414 9.61347 0.148119
1 10.7723 11.2764 1.67922
1 12.4466 6.47723 3.1014
1 1.7195 8.126 4.86031
1 3.1338 6.39052 3.18908
1 4.74994 8.14777 4.55264
1 6.45148 6.36265 3.24565
1 7.53991 7.85035 4.79889
1 9.4373 6.48073 3.30636
1 11.4922 8.46273 5.13034
1 12.6815 9.47105 2.88867
1 3.01843 0.202543 6.44759
1 3.17587 9.63917 3.04136
1 5.00911 11.1551 4.73308
1 6.62426 9.27041 3.09347
1 7.97456 11.0565 4.59458
1 9.39218 9.33117 3.02527
1 11.1591 11.0598 4.84252
1 12.5922 6.42942 6.31585
1 1.7681 7.81809 7.8607
1 3.19921 6.47802 6.26169
1 4.93022 8.12401 7.87989
1 6.38901 6.56688 6.49988
1 7.87707 7.82236 8.05621
1 9.53259 6.31784 6.51084
1 10.9874 8.11826 7.86922
1 0.309908 9.8273 6.44881
1 7.62443 12.2493 8.80068
1 3.07935 9.70297 6.3408
1 5.27246 11.0117 7.86637
1 6.50098 9.28986 6.24768
1 8.03217 10.4893 8.88421
1 9.44028 9.50437 6.02419
1 10.9666 10.9938 7.78083
1 0.170339 6.38333 9.69463
1 1.57142 7.96143 10.9751
1 3.22075 6.36177 9.58376
1 4.34386 8.14267 11.25
1 6.15772 6.22693 9.64513
1 8.10787 8.24768 10.8637
1 9.64099 6.47906 9.49621
1 10.3249 8.85234 11.7339
1 0.124121 9.85236 9.45756
1 1.31004 11.1768 11.0876
1 3.17672 9.58544 9.42163
1 4.88698 11.3557 11.344
1 6.29376 9.41635 9.90769
1 7.78952 11.2461 11.2938
1 12.0089 5.09541 4.82996
1 10.6971 11.1589 10.8155
128
 Atoms. Timestep: 400
1 12.5187 12.7152 0.371183
1 1.27403 1.8607 1.8713
1 2.88636 12.3025 0.962132
1 5.62782 0.877892 1.15919
2 8.54782 7.61033 3.23484
1 8.16908 1.47126 1.47901
1 9.52628 0.336666 0.0259948
1 11.1207 1.48329 2.32307
1 12.6964 3.0793 0.410016
1 1.59279 4.73527 1.90766
1 3.6518 2.8339 0.0787223
1 4.3502 4.84753 1.41369
1 6.30854 3.30881 0.259107
1 7.77103 5.15195 1.57072
1 9.48383 2.97994 12.5061
1 11.3602 4.82014 1.93761
1 0.452103 12.4682 2.97185
1 1.02868 1.57435 5.13379
1 8.75404 9.72851 3.01364
1 5.35705 2.07096 5.52234
1 6.45383 12.6427 3.14746
1 8.20014 1.79597 4.56291
1 1.59817 10.4524 7.93135
1 11.3393 1.59314 4.87384
1 12.5838 3.40713 3.33393
1 1.34349 4.85159 4.8802
1 2.87105 2.66498 3.61466
1 4.62684 4.71802 4.63688
1 6.26208 3.16164 2.80674
1 7.59832 4.62519 4.94531
1 9.52112 3.163 3.21735
1 11.5792 4.74489 4.69896
1 0.857046 12.5714 7.05023
1 1.67485 1.95424 8.32119
2 3.47983 8.86411 1.36479
1 4.57729 1.31574 7.79908
1 3.67772 4.75734 8.48949
1 7.43058 2.10484 7.37761
1 9.27054 0.237093 6.26551
1 11.2364 1.15596 7.73033
1 12.442 3.16389 6.67135
1 1.56918 4.66913 7.95681
1 3.00598 3.24831 6.37174
1 5.28451 4.47321 7.57994
2 5.71859 11.702 12.6663
1 7.94178 5.17955 7.9218
1 9.689 2.96528 6.24428
1 1.42592 8.13108 2.07416
1 0.0972792 12.5485 9.58398
1 1.92113 1.55689 11.5048
1 2.8108 12.0615 8.74788
1 4.14326 1.46931 11.4623
1 3.10002 3.14302 0.635087
1 7.35316 1.81257 11.2143
1 11.8504 1.58907 11.6559
1 7.59506 10.4503 2.21324
1 12.3011 3.38081 9.92604
1 2.01648 4.4835 11.8351
1 3.15914 3.26843 9.93103
1 4.59696 4.58039 11.0695
1 6.4965 3.95722 9.85576
1 8.22769 4.33479 11.4237
1 9.22371 3.23165 9.27361
1 7.88099 4.56247 10.6109
1 11.0884 3.96386 1.54993
1 1.29492 8.1616 1.64285
1 3.29292 6.25053 0.110755
1 4.52793 8.04769 1.77193
1 6.07304 6.23972 0.00553936
1 8.21068 7.92353 1.9374
1 9.76677 6.60059 12.6667
1 11.2412 7.96848 1.97722
1 12.5854 9.86735 12.5831
1 1.75781 10.8018 5.01798
1 3.38217 9.34895 12.6712
1 5.05711 11.2966 1.14426
1 5.96102 9.33192 0.0521684
1 7.77342 10.8996 1.88375
1 8.86381 9.77255 12.4267
1 10.8488 11.3584 1.68749
1 0.126345 6.63293 3.06563
1 1.59659 8.14085 4.88863
1 3.06283 6.58231 3.20602
1 4.07685 8.45866 5.11697
1 6.26334 6.55406 3.10289
1 8.15863 7.96367 4.73517
1 9.9346 6.36878 3.33721
1 11.2509 8.09559 4.63287
1 0.329548 9.95836 2.88261
1 3.13421 0.29264 5.9887
1 3.07402 10.1802 2.77224
1 4.80305 11.3577 5.12178
1 6.03922 9.42272 3.48097
1 7.9606 11.3129 4.95768
1 9.48921 9.78994 3.69282
1 11.4356 11.4556 5.02691
1 0.0109575 6.55667 6.53528
1 1.64665 8.20599 8.00387
1 2.76869 6.21296 6.49716
1 4.25326 7.64426 7.80304
1 5.75705 6.69465 6.05755
1 7.46882 7.85762 7.90034
1 9.95776 6.52055 6.51303
1 11.288 8.50178 8.55118
1 12.3047 9.21799 6.46845
1 10.6165 12.5592 0.839544
1 3.31399 10.4051 7.24744
1 5.54487 12.1103 8.31012
1 6.69878 9.74357 6.61773
1 8.49167 9.55606 9.32197
1 9.41461 9.5738 6.39816
1 10.7816 11.4743 8.00507
1 12.6235 7.08613 10.0018
1 1.9655 7.89294 11.074
1 3.51005 6.33384 9.55438
1 4.55667 7.80689 11.1641
1 5.95253 6.64401 9.65228
1 7.6116 7.82114 11.1263
1 9.44957 6.37857 9.59182
1 3.86625 1.73318 11.47
1 0.415571 10.2755 9.44971
1 1.79118 11.6054 11.4123
1 2.91892 9.63466 9.70908
1 4.26155 11.2821 11.2921
1 5.82664 9.36157 9.75224
1 7.39368 11.9991 12.0933
1 2.36418 7.23611 6.68882
1 11.0351 10.9408 11.085
128
 Atoms. Timestep: 500
1 0.123342 11.7021 0.507065
1 1.24206 1.93146 1.28136
1 2.96102 0.319561 1.60527
1 9.35256 3.78774 12.4468
2 5.91192 9.43724 7.50954
1 7.57844 0.778986 1.50561
1 10.4901 12.6693 11.8285
1 11.7593 1.37815 1.26371
1 12.1583 4.0731 0.236123
1 2.8442 4.95375 2.04262
1 8.59457 6.21049 3.67794
1 4.76691 4.95487 1.82287
1 7.24602 3.64999 12.4598
1 8.24533 4.92855 1.42382
1 10.1288 3.76369 1.01287
1 11.1357 6.23389 2.05554
1 0.824959 0.191969 3.86265
1 0.777831 1.52783 5.92969
1 2.47546 10.4641 7.30083
1 5.3483 3.19249 4.60363
1 6.90531 12.0359 3.42366
1 8.07339 2.01812 4.83163
1 3.05703 3.28322 9.44989
1 10.3968 1.09444 4.74674
1 11.9666 2.09292 3.66364
1 1.35866 4.48226 4.66784
1 3.05331 2.37588 3.89501
1 12.5986 8.49183 0.714097
1 6.96773 3.53078 2.82462
1 7.48504 4.65689 4.95133
1 9.40103 3.51147 3.10123
1 10.0746 5.46805 5.21331
1 12.6871 12.6999 7.158
1 1.17508 2.2447 8.41722
2 8.89993 5.33327 0.590887
1 4.42692 1.55345 7.87647
1 7.56285 3.35202 7.89525
1 7.03167 2.66337 7.56215
1 8.65446 0.529616 6.91876
1 11.2177 1.5334 7.67642
1 12.0601 3.58126 6.42499
1 1.61598 4.86586 8.21631
1 2.88421 2.95752 6.42621
1 5.32631 4.54677 6.70533
2 8.30218 5.08533 12.3238
1 7.66713 4.91656 7.09813
1 9.63037 3.44275 6.45616
1 5.79505 3.92914 1.8929
1 12.4598 0.457331 10.2949
1 2.69397 1.71148 11.5389
1 2.63591 11.9702 8.81923
1 1.46088 2.27277 0.737958
1 5.89649 8.11954 5.68651
1 8.65398 1.36145 10.5726
1 11.1206 1.68165 11.2892
1 1.93039 8.77549 8.92588
1 11.7747 3.95343 8.93368
1 0.791501 3.95654 10.6905
1 5.49661 8.11122 9.07311
1 3.96854 4.24687 12.5381
1 7.01504 4.21017 9.7318
1 6.18964 6.04659 1.36145
1 9.3996 3.27036 9.2923
1 5.89318 12.0491 9.19242
1 4.83489 12.4947 3.60134
1 1.75061 7.63573 1.80469
1 3.02936 6.57388 12.6862
1 4.96087 7.38204 1.3949
1 6.15285 5.98787 0.0476953
1 7.75688 9.00802 2.68122
1 9.2256 5.82795 0.039482
1 10.5383 8.93731 0.839316
1 12.7098 8.89763 11.6708
1 0.813167 10.499 6.9807
1 3.21542 10.4612 0.440287
1 5.32729 11.1998 1.10121
1 6.13208 9.16869 12.0813
1 7.29556 1.17487 4.87321
1 8.8545 9.99362 12.5743
1 10.7312 12.0999 1.75311
1 8.25765 11.7226 3.76179
1 0.737806 7.72424 5.00325
1 4.1157 7.44714 3.78292
1 0.381018 12.5901 10.2485
1 6.03372 5.60542 3.46011
1 8.48306 7.5265 5.5584
1 8.74401 6.42512 3.0939
1 9.71143 11.5387 7.98602
1 0.18692 10.5877 3.09229
1 3.1543 0.396482 5.63711
1 1.91735 9.47579 4.97718
1 5.19821 12.053 5.62999
1 5.68627 8.84469 4.93116
1 5.41739 12.5748 1.71916
1 9.69688 11.0084 2.72667
1 11.3362 11.3525 5.35737
1 12.5176 6.43798 6.71014
1 1.34916 7.83364 8.34691
1 3.32331 6.11867 6.22195
1 4.98397 8.6921 8.61895
1 6.01895 6.37636 5.98109
1 8.08805 7.72402 7.72125
1 10.1407 7.16172 7.16153
1 10.7887 8.0757 8.65763
1 7.14777 4.47831 0.751632
1 12.4538 11.7251 6.34395
1 4.01257 10.6973 7.55336
1 8.49181 11.3242 9.2397
1 0.91848 12.0795 5.05084
1 8.69568 9.35656 10.0861
1 9.85849 9.39791 7.68122
1 11.4928 11.0103 8.54521
1 0.068427 6.92772 10.2658
1 1.87548 8.22382 11.5032
1 2.70181 6.17529 10.4136
1 12.5923 9.52134 6.06773
1 6.28489 5.9923 8.80947
1 7.25046 7.4462 10.7025
1 8.89031 5.88244 9.53296
1 11.9516 1.86722 9.28904
1 1.04039 9.65439 9.52413
1 1.68704 11.2102 10.8318
1 3.91572 9.55636 11.09
1 4.84922 12.0121 11.0065
1 6.64033 9.59622 10.1029
1 7.30868 11.4008 10.7882
1 8.69595 5.70787 0.490634
1 11.0651 10.3499 10.6045
128
 Atoms. Timestep: 600
1 12.3858 9.59677 11.1203
1 0.106872 5.74183 0.672776
1 3.69082 12.3986 4.78892
1 3.13921 5.7762 3.53807
2 5.26417 10.7535 0.188834
1 10.7299 2.05355 12.2905
1 5.29283 5.60133 6.95989
1 8.04652 11.7437 4.00405
1 2.57344 8.29546 0.127713
1 3.27025 6.14641 3.92847
1 6.91205 6.21686 1.46586
1 7.39121 4.71412 2.32121
1 7.04981 3.8139 12.5145
1 8.8213 0.848599 10.0967
1 9.22684 5.07221 0.901668
1 7.77491 6.30713 3.7973
1 0.249633 12.4226 3.42212
1 1.18472 2.88388 5.10093
1 6.79004 3.55915 8.46501
1 4.76505 3.45694 3.52641
1 8.50213 10.4492 3.90318
1 7.18801 4.19574 5.6626
1 9.54627 2.04582 4.00909
1 10.1651 0.182023 4.26939
1 11.512 2.46635 4.17771
1 1.61418 4.2089 3.88735
1 1.41777 2.48373 3.05166
1 0.684147 11.0548 3.34281
1 6.67152 1.95029 2.1321
1 6.61187 5.27906 5.88643
1 8.84419 4.35467 4.90804
1 7.57293 5.12321 6.54667
1 12.1663 0.588485 6.91233
1 1.19174 2.18821 8.34766
2 11.4467 3.6192 6.98674
1 3.78409 1.04403 8.0935
1 10.131 2.02261 7.7176
1 7.43956 4.81403 6.40595
1 8.35141 0.0705882 6.88425
1 10.0387 2.69501 8.44362
1 11.3503 4.08148 6.23824
1 0.624538 4.15001 6.81536
1 2.91188 3.68899 5.38823
1 6.31895 2.85265 6.91136
2 10.8525 7.08606 6.03
1 7.69673 5.68676 6.26604
1 7.65998 5.81196 6.40663
1 11.3143 0.168461 11.8096
1 12.4302 11.9175 10.8114
1 3.05179 1.4981 9.16952
1 1.15883 11.4097 9.19654
1 2.24531 7.71029 10.2302
1 5.78117 1.92695 8.43686
1 8.94488 0.236906 9.62411
1 10.7855 4.1608 10.884
1 7.20644 5.04865 2.31115
1 8.59341 9.94714 12.6567
1 1.93985 3.77209 10.9127
1 4.50072 11.7679 10.6282
1 7.72436 12.1538 2.80735
1 7.26935 4.79867 7.3546
1 12.0828 1.41013 8.20246
1 7.81007 5.51675 6.54846
1 4.78083 11.363 0.334146
1 0.604355 10.0667 1.8253
1 1.58701 7.32101 2.99458
1 3.1954 5.02206 11.8632
1 5.51105 5.84691 12.501
1 5.21571 4.23054 12.1344
1 6.385 8.40912 2.08635
1 8.25094 6.45157 0.534881
1 9.59994 12.2106 11.8526
1 12.0451 7.96746 12.5572
1 12.5783 9.77096 9.80056
1 2.10681 11.1359 1.00652
1 5.63848 11.7635 1.61785
1 6.16803 8.60955 12.4302
1 5.86595 4.81086 6.62476
1 8.21526 10.0002 12.5574
1 12.2879 1.20544 2.26336
1 2.21007 3.96918 6.07132
1 11.6888 5.76226 2.89686
1 3.64257 9.64106 1.15407
1 3.22849 1.47499 8.67629
1 6.21954 5.82565 6.37858
1 8.036 5.80234 6.58049
1 6.73389 6.84099 1.45438
1 6.65906 7.35828 3.09654
1 12.0895 10.7287 2.25814
1 1.42587 0.336013 5.87643
1 11.6402 0.50663 12.5404
1 6.95267 12.6296 9.10043
1 5.26257 10.5762 5.62714
1 11.2055 10.3308 1.28553
1 10.414 12.062 2.61863
1 11.6517 11.4582 4.8751
1 2.06859 11.2842 10.5624
1 0.308921 7.25388 7.56872
1 3.36431 6.26323 6.00311
1 6.21163 8.99542 7.55929
1 6.86099 7.22142 6.08862
1 7.38818 5.69922 7.12866
1 12.6456 0.642107 4.90192
1 0.361139 9.54079 10.0715
1 2.83166 1.00595 10.3483
1 4.4689 2.51724 8.00938
1 2.64802 10.5773 8.98261
1 9.22747 1.30177 6.75196
1 3.2611 7.90353 7.76752
1 10.7865 9.37611 11.0345
1 10.0174 10.8594 8.81034
1 11.2559 2.08327 12.2255
1 1.27598 5.66767 10.8886
1 1.58623 9.5451 11.6685
1 1.87334 7.27241 10.4223
1 0.613859 7.86927 5.77371
1 7.015 5.11996 7.05699
1 7.09694 6.15758 10.3447
1 7.79532 5.73167 6.66505
1 7.5026 11.656 5.88653
1 2.9586 9.02607 10.2844
1 1.84634 0.0799997 12.448
1 4.2212 9.98198 10.754
1 4.09215 12.122 12.0403
1 7.77495 11.6558 9.10587
1 6.49434 0.553338 11.7649
1 0.0349265 8.14309 3.96929
1 10.6141 2.12119 2.82598
128
 Atoms. Timestep: 700
1 0.479412 9.77488 11.4758
1 10.7047 5.14508 12.613
1 3.97501 4.07177 6.74115
1 8.2508 2.90672 9.99552
2 2.63936 7.07998 10.698
1 0.466975 4.89243 10.9811
1 12.2691 3.52949 2.30873
1 2.79896 1.88208 9.92915
1 0.360211 9.99039 10.7585
1 5.46562 3.81224 4.11026
1 5.04094 0.476646 12.3561
1 6.55511 4.16173 5.80693
1 11.0993 9.61195 11.5293
1 10.4822 0.894463 5.12943
1 10.4833 2.96152 9.92332
1 4.63382 10.2939 8.35697
1 4.71185 11.1492 9.02497
1 1.98862 12.5213 6.01019
1 7.13304 5.89965 0.483522
1 3.40879 5.9752 1.59832
1 1.93283 0.247178 2.01995
1 8.50151 6.59493 5.33184
1 2.72356 9.57994 0.170845
1 9.83265 11.4807 5.1515
1 0.29951 2.51095 3.1936
1 1.23501 4.1223 4.02076
1 2.0844 2.9008 2.15189
1 0.273267 6.31723 5.34758
1 12.2028 5.59403 5.93901
1 10.688 2.2348 3.71075
1 6.81334 8.13859 2.93408
1 1.81046 10.7395 7.66059
1 9.94591 2.18489 3.55338
1 9.93693 0.387914 5.59231
2 7.90856 8.06269 3.51125
1 2.75819 9.87477 6.3963
1 2.76243 8.80214 8.94783
1 8.91914 9.66714 1.70918
1 0.617629 7.7649 7.96567
1 2.68257 1.69199 2.21102
1 11.9083 4.17636 5.96809
1 2.01581 2.97718 5.63775
1 2.2644 2.18126 4.66097
1 2.09301 1.69167 5.37607
2 0.808828 1.32125 11.6835
1 2.54772 0.12738 2.09037
1 3.91933 3.27684 1.51357
1 3.2604 4.24414 11.887
1 0.705231 0.36544 9.45247
1 11.1646 0.475279 10.5309
1 1.23101 10.2115 11.33
1 6.92737 2.08192 6.71147
1 0.232453 3.98116 4.0271
1 11.3476 12.0074 11.409
1 6.03494 10.6104 10.3465
1 9.94115 9.45431 6.74341
1 8.78845 10.9593 1.78089
1 2.5202 10.6222 11.0366
1 0.273985 5.06656 10.0796
1 3.19013 5.16909 3.79015
1 2.65684 11.0006 7.99415
1 1.60536 5.35112 8.19103
1 7.57641 10.9601 7.82661
1 5.26939 7.43266 5.34786
1 10.1351 5.36845 1.54039
1 1.11777 10.7102 6.4999
1 4.33849 5.33161 12.112
1 7.56427 7.07955 10.2986
1 8.59664 6.14394 3.87807
1 4.17186 6.25407 3.05633
1 7.47202 10.545 11.0087
1 4.59205 2.24617 2.05081
1 0.462094 11.8255 10.6402
1 0.77529 11.5858 11.322
1 1.11414 10.532 10.9276
1 0.363608 1.77597 4.26724
1 5.08218 7.395 0.111816
1 2.59477 0.332567 6.75105
1 2.04268 6.05237 6.69419
1 1.26822 12.5522 4.45654
1 3.78238 8.83716 8.89925
1 10.4904 3.89207 4.42818
1 0.361547 11.5393 10.9656
1 10.3797 12.0666 6.93547
1 1.03599 8.85554 9.80175
1 1.60399 10.026 11.7539
1 0.791997 5.7338 0.32958
1 9.23594 6.64628 1.34305
1 5.37581 7.91869 10.3609
1 0.630229 10.9839 0.0501558
1 12.1417 5.83544 8.92199
1 7.96174 8.05513 3.39049
1 3.10689 11.6983 4.21059
1 9.11537 7.71127 12.0549
1 12.2448 4.00171 1.77746
1 11.9644 11.3602 4.64142
1 5.72361 5.08117 3.83948
1 11.5611 7.55289 5.99251
1 1.21809 7.31632 6.74133
1 5.72332 2.80557 1.08259
1 9.22948 11.6287 8.49143
1 10.3784 2.96532 4.28188
1 9.59531 3.72555 11.7488
1 0.725759 11.8412 11.4112
1 11.7514 7.64929 11.8934
1 1.85556 0.170127 7.34927
1 0.453677 11.0183 0.0645926
1 6.36698 6.8375 10.8387
1 0.233245 6.17261 6.4946
1 2.46577 10.9326 11.4909
1 1.13959 10.2879 11.5403
1 4.42879 7.67589 10.4041
1 0.590698 9.82704 12.0477
1 10.7739 1.66076 2.07087
1 0.672239 10.4512 10.3062
1 2.5726 5.20586 7.8237
1 12.6153 0.024705 8.89511
1 9.23267 4.70045 11.158
1 9.66076 9.04955 9.77831
1 5.90533 6.13975 10.29
1 1.81705 11.067 11.378
1 11.7847 10.2849 12.1309
1 0.64685 10.1306 11.5573
1 12.3549 10.2476 9.95636
1 4.21529 3.22221 6.78294
1 6.67035 8.40734 8.42441
1 8.65205 9.87877 11.3323
1 1.07062 0.722153 6.05225
128
 Atoms. Timestep: 800
1 8.29338 6.26462 8.47418
1 7.72858 2.63477 0.670376
1 3.33129 10.5707 10.6754
1 10.5116 10.4034 0.392322
2 10.8396 9.3432 11.1676
1 2.91963 5.32842 9.21005
1 4.12177 9.02553 5.36484
1 11.8152 12.1442 8.87262
1 8.45163 4.36884 1.58897
1 5.4794 10.9286 11.1424
1 1.20913 1.59802 2.54406
1 2.97373 10.6629 0.949906
1 12.576 1.95804 10.0319
1 0.432717 10.7039 2.5239
1 4.77902 4.25247 4.68919
1 10.6144 3.64228 1.089
1 8.51425 9.70057 3.04636
1 2.9572 7.19584 6.25031
1 7.60925 4.85521 9.88575
1 0.493126 10.239 1.9218
1 0.864424 10.4047 1.22257
1 9.9397 9.8456 6.0977
1 10.7492 5.33244 6.97367
1 10.8799 5.57607 5.74637
1 0.401148 2.98796 5.7129
1 2.3926 0.517003 4.9199
1 11.2871 3.11873 3.19981
1 2.58023 9.92581 1.41239
1 1.68093 1.20255 12.4141
1 6.3768 5.93324 9.25467
1 3.53382 2.67106 8.50306
1 6.99495 8.67683 2.22493
1 6.37284 10.475 11.6419
1 1.85725 0.799028 11.2451
2 1.42989 8.71114 4.28969
1 3.57249 5.35646 2.09094
1 5.27103 4.37333 0.576056
1 7.55934 0.426299 10.495
1 7.82948 0.784793 10.2525
1 2.00065 4.15514 11.0902
1 3.1589 12.4071 7.32951
1 11.8919 12.5349 4.73906
1 1.66733 3.33582 6.81877
1 5.45178 9.08689 5.0029
2 8.45925 6.12657 4.00943
1 11.847 10.207 4.36988
1 11.8628 2.30009 9.95787
1 8.62303 10.3383 9.58079
1 9.60288 6.32943 6.79639
1 0.91127 1.57466 1.90364
1 1.34709 0.987802 11.006
1 10.8847 11.1987 1.16053
1 1.42828 9.42424 8.05716
1 8.24042 6.69518 3.70953
1 2.25575 2.02333 10.1828
1 11.8817 0.434022 1.05829
1 6.49674 10.6854 4.7943
1 3.57347 8.32064 0.933824
1 11.6394 12.0786 10.4384
1 0.314303 8.63804 7.53411
1 8.73143 5.18986 12.1972
1 4.9495 10.2546 9.65835
1 8.76053 7.59267 8.04458
1 4.8936 10.4338 7.77026
1 5.51706 11.625 11.6452
1 0.976157 0.963005 7.34153
1 5.31206 5.67925 0.486943
1 8.27501 8.0525 0.548046
1 6.4366 3.55723 5.75641
1 10.3519 2.24787 12.5358
1 0.339356 0.350985 3.57762
1 11.5861 3.75657 6.93331
1 6.06474 8.79089 6.42334
1 8.36806 10.364 3.07414
1 12.3112 8.18793 1.42194
1 10.8495 1.82512 2.86907
1 3.96654 2.57468 2.23953
1 10.7077 4.86969 1.01656
1 12.431 7.4878 8.85628
1 9.8599 2.76797 1.9188
1 3.37476 12.6203 3.45203
1 11.2363 5.00503 3.75677
1 7.57465 11.158 4.72554
1 11.6069 6.34445 0.97211
1 7.69912 0.388699 7.26164
1 8.30996 9.407 5.62632
1 9.68734 8.27053 11.2118
1 6.32746 1.17156 11.1863
1 2.99961 4.4065 7.03386
1 9.1786 9.35365 5.90151
1 9.15656 10.5725 2.28325
1 10.8768 8.03916 5.84282
1 1.77615 12.2756 7.33707
1 7.07751 5.59115 11.9199
1 9.32834 8.44972 9.76913
1 1.79474 4.75127 10.7205
1 3.44488 9.67616 6.76614
1 4.86354 5.9796 0.367722
1 3.23061 8.5185 3.26103
1 5.80404 7.1129 8.74143
1 10.8143 5.47067 2.19682
1 6.73847 7.0792 11.6197
1 12.1646 10.575 1.02079
1 5.63488 1.94974 3.9185
1 6.71293 9.04594 6.36732
1 3.30368 10.4185 7.6412
1 10.898 10.0134 10.3216
1 4.03544 1.04695 3.1202
1 3.39882 4.82251 1.99574
1 0.679201 3.94166 2.32985
1 0.306753 10.1385 4.73144
1 6.17509 9.14158 5.83362
1 10.1327 12.6597 6.5782
1 7.28285 9.72733 4.62612
1 1.8351 12.3705 7.35161
1 1.54796 2.95422 10.6291
1 10.9835 10.4275 2.72535
1 9.77118 3.75201 6.53373
1 5.90091 8.39873 8.86583
1 11.0073 1.42412 7.26059
1 7.8951 2.94621 12.2697
1 10.4207 2.69929 7.67214
1 0.138232 6.34879 8.79905
1 11.0047 0.424451 11.4977
1 12.4615 7.5032 11.1634
1 8.31436 4.81968 4.69798
1 7.76541 6.55101 0.659918
1 9.4502 8.72683 7.42781
128
 Atoms. Timestep: 900
1 9.45604 2.05473 10.3578
1 12.247 8.95146 9.90663
1 3.01868 4.71055 2.92407
1 11.4366 6.89151 1.42868
2 0.757834 10.8696 0.353438
1 8.08602 3.61804 3.61616
1 3.26313 9.19999 12.6786
1 6.56596 0.460319 2.05916
1 6.6221 7.25707 7.99347