128
 Atoms. Timestep: 0
1 0 0 0
1 1.59015 1.59015 1.59015
1 3.1803 0 0
1 4.77045 1.59015 1.59015
2 6.3606 0 0
1 7.95075 1.59015 1.59015
1 9.5409 0 0
1 11.1311 1.59015 1.59015
1 0 3.1803 0
1 1.59015 4.77045 1.59015
1 3.1803 3.1803 0
1 4.77045 4.77045 1.59015
1 6.3606 3.1803 0
1 7.95075 4.77045 1.59015
1 9.5409 3.1803 0
1 11.1311 4.77045 1.59015
1 0 0 3.1803
1 1.59015 1.59015 4.77045
1 3.1803 0 3.1803
1 4.77045 1.59015 4.77045
1 6.3606 0 3.1803
1 7.95075 1.59015 4.77045
1 9.5409 0 3.1803
1 11.1311 1.59015 4.77045
1 0 3.1803 3.1803
1 1.59015 4.77045 4.77045
1 3.1803 3.1803 3.1803
1 4.77045 4.77045 4.77045
1 6.3606 3.1803 3.1803
1 7.95075 4.77045 4.77045
1 9.5409 3.1803 3.1803
1 11.1311 4.77045 4.77045
1 0 0 6.3606
1 1.59015 1.59015 7.95075
2 3.1803 0 6.3606
1 4.77045 1.59015 7.95075
1 6.3606 0 6.3606
1 7.95075 1.59015 7.95075
1 9.5409 0 6.3606
1 11.1311 1.59015 7.95075
1 0 3.1803 6.3606
1 1.59015 4.77045 7.95075
1 3.1803 3.1803 6.3606
1 4.77045 4.77045 7.95075
2 6.3606 3.1803 6.3606
1 7.95075 4.77045 7.95075
1 9.5409 3.1803 6.3606
1 11.1311 4.77045 7.95075
1 0 0 9.5409
1 1.59015 1.59015 11.1311
1 3.1803 0 9.5409
1 4.77045 1.59015 11.1311
1 6.3606 0 9.5409
1 7.95075 1.59015 11.1311
1 9.5409 0 9.5409
1 11.1311 1.59015 11.1311
1 0 3.1803 9.5409
1 1.59015 4.77045 11.1311
1 3.1803 3.1803 9.5409
1 4.77045 4.77045 11.1311
1 6.3606 3.1803 9.5409
1 7.95075 4.77045 11.1311
1 9.5409 3.1803 9.5409
1 11.1311 4.77045 11.1311
1 0 6.3606 0
1 1.59015 7.95075 1.59015
1 3.1803 6.3606 0
1 4.77045 7.95075 1.59015
1 6.3606 6.3606 0
1 7.95075 7.95075 1.59015
1 9.5409 6.3606 0
1 11.1311 7.95075 1.59015
1 0 9.5409 0
1 1.59015 11.1311 1.59015
1 3.1803 9.5409 0
1 4.77045 11.1311 1.59015
1 6.3606 9.5409 0
1 7.95075 11.1311 1.59015
1 9.5409 9.5409 0
1 11.1311 11.1311 1.59015
1 0 6.3606 3.1803
1 1.59015 7.95075 4.77045
1 3.1803 6.3606 3.1803
1 4.77045 7.95075 4.77045
1 6.3606 6.3606 3.1803
1 7.95075 7.95075 4.77045
1 9.5409 6.3606 3.1803
1 11.1311 7.95075 4.77045
1 0 9.5409 3.1803
1 1.59015 11.1311 4.77045
1 3.1803 9.5409 3.1803
1 4.77045 11.1311 4.77045
1 6.3606 9.5409 3.1803
1 7.95075 11.1311 4.77045
1 9.5409 9.5409 3.1803
1 11.1311 11.1311 4.77045
1 0 6.3606 6.3606
1 1.59015 7.95075 7.95075
1 3.1803 6.3606 6.3606
1 4.77045 7.95075 7.95075
1 6.3606 6.3606 6.3606
1 7.95075 7.95075 7.95075
1 9.5409 6.3606 6.3606
1 11.1311 7.95075 7.95075
1 0 9.5409 6.3606
1 1.59015 11.1311 7.95075
1 3.1803 9.5409 6.3606
1 4.77045 11.1311 7.95075
1 6.3606 9.5409 6.3606
1 7.95075 11.1311 7.95075
1 9.5409 9.5409 6.3606
1 11.1311 11.1311 7.95075
1 0 6.3606 9.5409
1 1.59015 7.95075 11.1311
1 3.1803 6.3606 9.5409
1 4.77045 7.95075 11.1311
1 6.3606 6.3606 9.5409
1 7.95075 7.95075 11.1311
1 9.5409 6.3606 9.5409
1 11.1311 7.95075 11.1311
1 0 9.5409 9.5409
1 1.59015 11.1311 11.1311
1 3.1803 9.5409 9.5409
1 4.77045 11.1311 11.1311
1 6.3606 9.5409 9.5409
1 7.95075 11.1311 11.1311
1 9.5409 9.5409 9.5409
1 11.1311 11.1311 11.1311
128
 Atoms. Timestep: 100
1 12.7338 0.000794146 0.00454465
1 1.78145 1.50305 1.61952
1 3.45119 12.725 12.7001
1 5.0886 1.25601 1.44943
2 6.33351 -0.0211073 12.7378
1 7.59149 1.31322 1.31298
1 9.31754 0.0264301 0.0134577
1 11.0351 1.57171 1.50537
1 0.0660061 3.16371 12.7182
1 1.51706 4.81558 1.58043
1 3.20071 3.18215 12.7116
1 4.8513 4.65261 1.63564
1 6.37015 2.97233 0.0301617
1 7.90436 4.62615 1.70183
1 9.55483 3.2047 12.7068
1 11.1409 4.79858 1.57287
1 12.7234 0.0410241 3.1662
1 2.03125 1.308 5.12376
1 3.28006 0.0950894 3.52362
1 4.7924 1.5453 5.39072
1 6.37078 12.6865 2.97364
1 7.50108 1.81598 5.01192
1 9.46267 0.0876023 3.26276
1 11.1298 1.60556 4.80066
1 0.0960827 3.06436 3.22223
1 1.74273 4.58683 4.86726
1 3.26121 3.12297 3.03484
1 5.08128 4.32425 5.13778
1 6.24652 3.06641 3.52519
1 7.66513 4.44178 5.13078
1 9.43119 3.08639 3.08012
1 11.0065 4.75944 4.75644
1 0.215841 0.0277473 6.34958
1 2.03268 1.27745 7.57094
2 3.44861 0.208599 6.37143
1 4.79994 1.53946 7.36456
1 6.175 0.171914 6.35195
1 7.47967 1.85745 7.71654
1 9.56086 12.7148 6.37527
1 11.1716 1.62219 7.85401
1 12.69 3.19447 6.3346
1 1.71357 4.60183 7.94265
1 3.42353 3.02318 6.34987
1 5.06682 4.35806 7.61803
2 6.15588 2.94662 6.29792
1 7.61283 4.46399 7.59814
1 9.30257 3.1505 6.3457
1 10.9911 4.75036 7.92481
1 12.7038 12.7172 9.54177
1 1.71104 1.54661 11.0548
1 3.2473 0.0706267 9.24775
1 5.0707 1.31624 11.2586
1 6.32466 12.7239 9.78118
1 7.58511 1.34715 11.3645
1 9.47598 0.101262 9.43771
1 11.0093 1.57367 11.1771
1 0.0637809 3.05513 9.4728
1 1.56578 4.82716 11.1649
1 3.25249 3.13665 9.62175
1 4.87341 4.62364 11.0397
1 6.2958 3.11343 9.20772
1 7.91994 4.6585 11.0399
1 9.47833 3.10049 9.61933
1 11.2049 4.81646 11.134
1 12.7056 6.40338 0.0449261
1 1.57049 7.93354 1.58189
1 3.19675 6.31927 0.030202
1 4.81954 8.05587 1.5465
1 6.37963 6.33101 12.699
1 7.94475 8.07579 1.56881
1 9.49825 6.32394 12.7147
1 11.1474 7.92175 1.60516
1 0.0160952 9.60013 12.6938
1 1.75034 11.2055 1.66887
1 3.16355 9.49891 12.6954
1 5.01899 11.4177 1.35467
1 6.32725 9.72719 12.7019
1 7.60825 11.3968 1.19168
1 9.56188 9.54195 0.0173402
1 10.9943 11.1369 1.57914
1 0.0339352 6.33498 3.25387
1 1.60836 8.0831 4.77162
1 3.26502 6.24961 3.27903
1 4.72398 7.94027 4.85086
1 6.3059 6.35408 3.17583
1 7.93319 7.76861 4.82723
1 9.41638 6.29413 3.25369
1 11.1211 7.9685 4.71698
1 0.0679634 9.6459 3.19832
1 1.87677 11.4577 5.08451
1 3.24461 9.60689 3.11111
1 4.47578 11.5839 5.01267
1 6.27941 9.58801 3.29293
1 7.78343 11.2959 4.737
1 9.40297 9.65724 3.16281
1 11.3002 11.1732 4.81161
1 0.0462087 6.34859 6.36165
1 1.60527 8.07744 7.95128
1 3.17618 6.37739 6.38146
1 4.74824 7.9459 7.87087
1 6.35608 6.15289 6.33935
1 7.94545 7.82287 7.91399
1 9.59881 6.37292 6.3577
1 11.1621 7.93767 7.96396
1 12.6973 9.49169 6.33271
1 1.8843 11.4157 7.58596
1 3.16208 9.75625 6.38946
1 4.462 11.5826 7.72124
1 6.35851 9.52104 6.33973
1 7.7293 11.3251 8.00158
1 9.50817 9.54946 6.39997
1 11.2623 11.1495 7.90945
1 0.0122627 6.33062 9.5172
1 1.51042 7.91825 11.1394
1 3.30318 6.29978 9.49656
1 4.79116 8.00619 11.2164
1 6.35781 6.40375 9.52137
1 7.92122 8.10442 11.1799
1 9.44455 6.28414 9.43568
1 11.108 7.9267 11.1137
1 12.7854 9.66026 9.47252
1 1.77236 11.2088 11.0455
1 3.27744 9.62856 9.68014
1 5.11045 11.4904 11.4364
1 6.26499 9.62541 9.43849
1 7.70317 11.4491 11.4808
1 9.45977 9.64735 9.58715
1 11.0209 11.1815 11.2121
128
 Atoms. Timestep: 200
1 0.150699 12.5427 12.7134
1 1.83076 1.47081 1.63379
1 3.30746 0.142045 12.6466
1 5.10123 1.28189 1.48839
2 6.36028 0.0496157 0.0312382
1 7.64119 1.3571 1.2885
1 9.65414 0.232286 0.0743016
1 11.1231 1.65011 1.59138
1 0.152047 2.85517 12.7092
1 1.45888 4.82555 1.6684
1 3.1575 3.24838 12.7016
1 4.81582 4.58444 1.65471
1 6.28352 3.26474 0.0556215
1 7.77809 4.41514 2.02497
1 9.56744 3.56467 12.6855
1 11.2633 4.72248 1.76046
1 12.6957 0.180282 2.99801
1 1.78617 1.33304 4.95426
1 3.59695 0.418153 3.87955
1 4.76346 1.51363 6.37607
1 6.47466 12.5623 3.25281
1 7.52665 1.95154 4.7887
1 9.4412 0.181741 3.5595
1 11.1447 1.70645 4.69626
1 0.210603 2.89901 3.28175
1 1.91268 4.42425 4.56216
1 3.41678 2.98343 2.87697
1 5.16085 4.54714 4.92206
1 5.97693 2.73915 3.84865
1 7.9009 4.60114 5.06125
1 9.36268 2.76204 2.95037
1 10.8627 4.61925 4.48635
1 12.4212 0.2223 6.3691
1 1.79314 1.34608 7.6761
2 3.77624 0.598017 6.42703
1 4.74609 1.53706 6.55819
1 6.74587 12.3043 6.35969
1 7.58208 1.97317 7.91256
1 9.41703 12.5644 6.34432
1 11.2248 1.6455 7.9476
1 -0.00285664 3.55021 6.3204
1 1.80474 4.4018 8.26524
1 3.1713 3.56124 6.28646
1 4.97512 4.60414 7.78546
2 5.87322 2.68658 6.41506
1 7.79848 4.73032 7.64397
1 9.52658 2.69742 6.36079
1 10.829 4.60126 8.1164
1 12.6976 0.115349 9.68414
1 1.65332 1.55748 10.9999
1 3.51101 0.316835 8.93446
1 4.97213 1.43327 11.1535
1 6.31705 12.6469 9.56853
1 7.66062 1.4567 11.3459
1 9.43069 0.199027 9.08754
1 11.0137 1.59995 11.0666
1 0.162068 2.88061 9.37753
1 1.61623 4.89929 11.1512
1 3.37878 2.9301 9.77456
1 4.93989 4.62805 10.9738
1 6.11361 2.85794 8.83548
1 7.83774 4.45089 10.7465
1 9.46838 2.87647 9.62429
1 11.4023 4.72052 10.9682
1 12.5171 6.61425 0.0497445
1 1.70402 7.77707 1.78012
1 3.55335 6.20073 0.0735377
1 4.77283 7.99553 1.67965
1 6.60072 6.23781 12.7196
1 7.91678 8.21963 1.76101
1 9.14664 6.22722 12.6782
1 11.1465 7.91613 1.91452
1 0.138348 9.94926 12.6808
1 1.94389 11.3264 1.90661
1 2.77529 9.4945 0.00907286
1 4.84703 11.3179 1.45895
1 6.15843 9.31425 12.6689
1 7.64348 11.2739 1.23625
1 9.88984 9.22901 0.0868325
1 10.7704 11.2066 1.78723
1 0.159301 6.2102 3.84018
1 1.68718 8.27076 4.61862
1 3.38629 6.1276 3.41208
1 4.61674 7.88098 4.73355
1 6.16503 6.31328 3.004
1 7.95731 7.73502 4.70942
1 9.21417 6.22783 2.93687
1 10.9306 8.13849 4.47511
1 0.107758 9.83814 2.82748
1 1.67105 11.2315 4.92874
1 3.52862 9.61898 3.07175
1 4.36755 11.4258 4.84721
1 6.22253 9.57736 3.616
1 7.83024 11.2761 4.54531
1 9.14507 9.93313 3.4676
1 11.2689 11.1141 4.73644
1 0.210087 6.18887 6.37363
1 1.77473 8.21911 8.22338
1 2.821 6.39234 6.41852
1 4.74998 7.94951 8.00079
1 6.1382 6.69484 6.331
1 8.06907 7.85023 8.02068
1 9.95115 6.46678 6.34584
1 11.0434 8.0969 8.2093
1 12.5462 9.20195 6.30423
1 1.62575 11.218 7.64508
1 3.58157 9.54371 6.42964
1 4.33075 11.4577 7.91691
1 6.47454 9.6634 6.36092
1 7.68204 11.3428 8.232
1 9.17851 9.84077 6.39025
1 11.2082 11.0514 8.02797
1 0.142345 6.1629 8.92998
1 1.55876 7.76502 10.9571
1 3.43459 6.19502 9.40846
1 4.63429 7.94749 11.1033
1 6.2302 6.46404 9.67361
1 7.88276 8.34533 10.9627
1 9.21725 6.20923 9.77149
1 11.0703 7.95643 10.7868
1 0.199375 9.85642 9.73925
1 2.01388 11.3425 10.8064
1 3.56849 9.72156 9.76278
1 5.11452 11.3523 11.4803
1 6.19206 9.64301 9.126
1 7.88792 11.4084 11.431
1 9.16794 9.9573 9.31683
1 10.8771 11.192 10.9718
128
 Atoms. Timestep: 300
1 0.267468 11.9899 0.0131805
1 2.05124 1.63714 1.81154
1 2.80064 0.0818696 12.3387
1 5.42028 1.14372 1.36007
2 5.83217 0.602048 0.887213
1 7.72976 1.09386 1.30464
1 10.5641 0.44117 0.116364
1 11.2772 2.08894 1.42506
1 12.6442 2.62289 12.6951
1 1.18726 4.98108 1.2179
1 3.02751 3.30278 12.5
1 4.45041 4.43433 1.84595
1 6.41075 3.86394 0.144669
1 7.73119 3.97608 2.57258
1 9.34292 3.95228 12.7102
1 11.7054 4.88795 1.61231
1 12.6674 12.5578 2.7213
1 1.40879 1.15297 5.20837
1 3.78066 0.315269 4.26406
1 4.42223 1.77473 6.89793
1 6.6044 12.2319 3.64103
1 6.92946 2.35746 4.66263
1 9.61908 0.488054 3.57121
1 11.5373 1.97707 4.58205
1 0.309676 3.29872 3.52019
1 2.05969 4.07057 3.98297
1 3.92448 2.8442 2.99784
1 5.36919 4.75113 5.1211
1 6.81784 2.40563 4.58229
1 8.33705 5.01425 5.49703
1 9.2622 2.90397 2.64551
1 10.3044 4.68173 4.38534
1 11.6213 0.321211 6.31198
1 1.62977 1.27555 7.28066
2 4.99968 9.57312 9.71393
1 3.95237 0.984227 4.77418
1 6.78255 12.3643 6.41846
1 6.89901 2.51777 8.07554
1 9.00416 12.4605 6.32339
1 11.7853 1.64358 8.11232
1 12.5079 3.80696 6.35714
1 1.78702 4.09676 8.91194
1 2.72244 4.05411 6.24747
1 5.18069 4.76432 7.63068
2 4.63352 0.0750587 0.350471
1 8.02445 5.33015 7.30928
1 9.36648 2.4811 6.33101
1 10.1991 4.66363 8.10828
1 0.176837 12.5001 9.9186
1 1.50481 1.83166 10.8918
1 3.67718 12.6623 8.64117
1 5.24006 1.34535 11.2652
1 6.21635 12.5002 9.30014
1 7.79607 1.29716 11.314
1 9.49409 0.398915 9.08292
1 10.6612 1.7093 11.233
1 0.0723937 3.40428 9.22723
1 1.61367 5.15975 11.6231
1 3.81709 2.57525 9.34628
1 4.78991 4.4929 10.7183
1 7.01117 2.33708 7.95795
1 7.70527 3.9922 10.1566
1 9.65125 3.14273 9.85891
1 11.8639 4.83309 11.1762
1 11.9331 7.15061 12.6898
1 1.64883 7.2463 1.63985
1 3.85699 6.39946 0.111689
1 4.64195 8.16015 1.46387
1 7.19394 6.19249 12.6714
1 8.02179 8.78643 1.73516
1 9.10182 6.30255 12.6908
1 11.4107 7.74733 2.16407
1 0.056018 9.98173 12.7135
1 2.39231 11.5602 2.48833
1 2.42975 9.7568 0.138501
1 5.07717 11.2839 1.45137
1 5.95616 8.51236 12.6872
1 7.73819 11.142 0.652923
1 10.0063 9.03652 0.0192563
1 10.2651 11.2358 1.6063
1 0.0158049 6.39228 3.90607
1 1.46446 8.91894 4.47958
1 2.98639 6.23568 3.62788
1 4.34481 7.28811 4.61799
1 6.46332 6.1422 2.63333
1 8.02598 7.17206 4.67901
1 9.5118 6.36653 2.39535
1 10.7191 8.24139 4.45153
1 12.6643 9.49891 2.33528
1 1.25025 11.034 5.26094
1 3.30538 9.56525 2.91871
1 4.04162 11.389 4.95386
1 6.0441 9.22611 3.65347
1 7.99738 11.1489 3.49112
1 9.48108 9.72515 3.60461
1 11.7844 10.9525 4.68995
1 0.416513 6.03457 6.32246
1 1.7049 8.87906 8.31598
1 2.47691 6.67043 6.49354
1 4.8178 7.53939 8.19247
1 5.783 7.26026 6.38892
1 8.33568 7.37093 7.99718
1 10.6168 6.57056 6.25727
1 11.0914 8.14493 8.33243
1 12.4812 8.63473 6.42656
1 1.11997 11.0405 7.37779
1 3.76408 9.54114 6.41076
1 3.90458 11.6234 7.81515
1 6.6295 9.95582 6.28839
1 7.46949 11.5164 9.17007
1 9.26259 9.68058 6.39841
1 11.589 10.8731 7.96541
1 12.6162 6.35643 8.85278
1 1.35846 7.31063 11.1999
1 2.94655 6.13462 9.12433
1 4.09752 7.92475 11.1983
1 6.65003 6.38785 10.0528
1 7.89847 8.88305 11.1044
1 9.64258 6.38574 10.3373
1 11.2043 7.84276 10.5771
1 0.168921 9.54126 10.2969
1 2.52423 11.4084 10.3922
1 3.42931 9.72352 10.0816
1 5.3228 11.1098 11.5271
1 6.06289 9.379 9.1601
1 8.01247 11.3989 12.188
1 9.35412 9.70849 9.28293
1 10.3526 11.1141 10.9923
128
 Atoms. Timestep: 400
1 0.285754 11.7763 12.6882
1 2.16008 1.72683 1.67621
1 3.01736 0.123316 12.4139
1 5.40137 1.08216 1.32844
2 8.73338 1.67649 1.22626
1 8.03374 1.23841 1.63058
1 10.4177 0.539563 12.6732
1 11.4183 2.50897 1.86058
1 0.54432 1.99188 12.5265
1 1.60125 4.54377 1.2076
1 3.77933 2.67883 12.283
1 4.13497 3.80132 2.44447
1 6.15777 3.45538 12.6998
1 9.39955 3.40881 2.17972
1 9.59137 3.39703 12.3917
1 11.6845 4.95743 1.4489
1 0.246154 12.6477 2.81846
1 0.749296 0.942471 5.73646
1 2.45096 0.979055 3.42855
1 3.9194 2.74251 5.88778
1 9.99724 9.84081 2.56056
1 8.61176 1.59108 5.29091
1 9.70508 0.965099 3.70675
1 12.154 2.57473 3.93361
1 4.11752 4.06448 3.77844
1 11.3834 2.56996 3.97939
1 5.0972 3.82732 2.59399
1 5.53906 4.78323 5.42465
1 5.52299 2.22174 3.80961
1 7.80113 4.9973 6.19961
1 7.2716 4.13652 2.75542
1 10.3634 4.71345 4.47868
1 10.7957 0.12128 6.27422
1 1.66682 1.33985 7.20526
2 11.2811 6.79999 8.85212
1 4.72727 12.674 4.93299
1 5.77029 0.0186078 6.36634
1 6.97715 2.03157 7.88607
1 8.43953 12.1327 6.27032
1 11.9897 1.49666 8.62261
1 11.853 4.04657 6.54994
1 1.86826 3.61765 9.09722
1 3.00926 3.44487 6.30189
1 5.20182 4.7344 7.69176
2 11.8051 11.1641 8.45816
1 7.78732 5.26018 6.7614
1 9.98264 2.64701 6.41378
1 10.2072 4.35505 8.56383
1 0.340349 12.5533 9.8855
1 1.74633 1.64423 10.5411
1 4.08533 12.3493 7.75868
1 5.23091 1.10191 11.284
1 7.0839 11.8587 9.54581
1 7.66076 1.74405 11.335
1 9.54268 0.611916 8.75678
1 10.5059 1.44399 10.9747
1 0.769431 3.69379 8.9173
1 1.99182 5.0133 11.649
1 4.26454 1.66193 9.08695
1 4.50974 4.45311 10.2687
1 7.18562 2.22999 8.10233
1 7.21489 3.94464 10.1563
1 10.0513 3.95055 9.37285
1 11.8787 4.33748 11.661
1 11.7737 7.16184 0.0102562
1 1.97003 7.1553 1.23553
1 4.65778 5.68273 0.281443
1 5.00018 8.53188 1.50212
1 7.81413 6.18202 0.079859
1 7.80724 8.83058 1.7705
1 8.05523 6.15533 0.0436449
1 11.6427 8.09684 2.57368
1 0.274555 10.9181 12.634
1 2.34334 11.7118 2.26899
1 2.84141 9.5211 0.393509
1 5.06247 11.4113 1.75484
1 5.89806 8.64514 0.0855749
1 7.71066 11.734 12.7192
1 9.77882 9.36997 0.0306815
1 10.3554 11.6772 1.65205
1 0.236731 6.29031 3.86007
1 1.31136 8.8763 4.50414
1 3.84524 6.71145 4.14832
1 3.15209 6.16976 3.74866
1 6.50825 5.95061 2.96284
1 7.43909 7.50418 4.53428
1 9.68727 6.58685 2.53158
1 9.90758 8.59006 4.94064
1 12.6841 9.48571 2.40342
1 1.35383 11.5436 5.71431
1 2.73117 9.53367 3.07885
1 4.48026 9.97801 5.27931
1 5.76988 8.97288 3.91762
1 4.97047 0.296173 4.24009
1 9.72491 9.58553 4.36599
1 11.3707 11.468 4.67761
1 1.37307 5.27506 6.24914
1 1.96234 8.97256 8.16604
1 2.04457 6.93415 6.69083
1 4.97317 7.01868 8.45032
1 5.5279 7.55328 6.16937
1 8.15931 7.43185 7.9016
1 10.5224 6.59793 6.02166
1 11.1742 8.3447 8.06124
1 12.5352 8.88237 6.27077
1 0.974099 11.4394 7.51379
1 3.57143 9.37155 6.24284
1 4.07878 12.2249 7.74452
1 7.06638 10.0156 6.57987
1 6.86288 11.8529 9.37924
1 8.57833 10.0722 6.7423
1 11.3761 11.1635 7.91521
1 0.003234 6.31841 9.00476
1 1.2857 7.14855 11.485
1 2.96069 6.1028 8.73726
1 3.80839 7.84363 10.812
1 6.56118 6.22266 10.1491
1 7.4272 8.83372 10.7921
1 9.67385 6.39799 10.3351
1 10.6536 8.0791 10.1365
1 0.0997807 9.58814 10.4652
1 2.91038 11.561 10.2152
1 3.15325 9.5004 10.4776
1 4.92602 10.9609 11.7993
1 5.4267 9.35997 8.623
1 7.57243 11.5421 12.6041
1 8.89253 10.0326 8.92138
1 10.2195 11.2666 10.7079
128
 Atoms. Timestep: 500
1 0.266876 10.2497 12.365
1 2.75002 1.28154 2.40774
1 2.99937 11.9452 0.451121
1 5.50309 0.233433 0.96331
2 10.7651 2.02913 0.605058
1 7.82765 2.2917 2.138
1 9.82755 0.588608 12.0878
1 10.5661 2.61907 1.68106
1 0.951349 1.76429 11.6473
1 1.92081 5.24476 1.22961
1 4.12771 2.59763 12.4927
1 5.09275 4.71483 2.00519
1 7.11973 3.30406 0.863246
1 0.979773 1.70306 0.306424
1 9.71318 4.16213 11.9351
1 11.6273 6.32961 0.782857
1 12.2137 12.3412 3.45742
1 0.602823 2.00985 7.11629
1 12.4901 2.00028 1.94854
1 2.9158 3.8891 6.03151
1 2.67536 6.05242 3.98267
1 10.9952 2.45501 5.61293
1 8.10587 1.90246 4.38558
1 1.51755 4.15507 4.66663
1 12.2054 4.34894 2.39161
1 4.77153 10.0107 3.11617
1 2.962 2.35299 2.68085
1 6.26384 4.68578 6.19854
1 5.37618 1.29929 3.51381
1 7.66025 5.92975 8.96262
1 2.04295 7.28961 4.32771
1 10.2759 5.58442 4.32335
1 11.5712 11.5003 6.31922
1 0.359435 1.52012 6.83463
2 11.4684 3.52269 10.3929
1 6.24371 12.5774 6.70733
1 5.19644 12.5172 6.06953
1 5.51764 2.77566 8.22759
1 8.43613 12.1862 5.73883
1 11.758 1.80227 9.32413
1 0.0965205 4.38811 6.64337
1 5.36244 5.32037 11.342
1 4.39887 2.47912 5.18411
1 4.6537 4.32227 7.61356
2 12.6408 3.67913 0.121639
1 8.32278 3.14962 3.40956
1 10.6411 2.18686 5.76135
1 10.4609 3.53683 7.11448
1 0.321911 12.3727 9.53775
1 1.58479 1.5992 10.5658
1 3.05364 4.80072 10.4068
1 5.93074 0.337507 10.9291
1 5.35188 0.317698 9.42998
1 7.89185 1.66821 10.9298
1 9.05167 0.808404 8.77244
1 10.6314 0.80676 11.849
1 9.90073 4.62822 11.3261
1 1.86384 4.72655 11.7584
1 3.37593 0.473401 7.73227
1 3.72713 3.6688 9.75904
1 8.51848 1.94067 6.1175
1 7.69535 4.48829 9.71087
1 9.96401 4.25384 8.5878
1 12.35 4.19734 10.5509
1 11.7857 6.75151 12.587
1 2.58745 7.38682 1.47076
1 4.61612 6.04253 12.7041
1 6.55855 9.6252 10.701
1 7.68933 6.15932 0.520522
1 9.01578 9.67706 2.14602
1 9.04698 6.18405 0.554365
1 11.3076 11.6919 0.135959
1 0.471423 12.2933 0.071819
1 2.48485 9.87049 3.26156
1 2.01833 8.92875 0.361455
1 5.33377 11.1704 3.57864
1 4.5873 7.34726 3.84506
1 7.86694 10.7584 8.88333
1 9.78073 9.15247 12.5349
1 10.1498 12.0407 2.07284
1 12.4781 6.39118 3.84614
1 0.0183256 8.88438 5.70972
1 12.2164 3.91748 1.68059
1 6.20214 9.68105 4.8083
1 7.25635 6.96039 2.91077
1 7.48564 7.14813 4.85194
1 10.0356 7.36873 2.846
1 9.49456 9.8203 4.68791
1 11.4354 8.91434 2.26725
1 2.78836 11.9447 5.19542
1 2.65974 10.9702 2.4721
1 2.97455 10.1375 6.10931
1 6.55578 11.2067 3.22857
1 1.30308 0.441825 4.67047
1 9.73092 8.86286 5.13789
1 11.6626 11.9852 4.78261
1 2.18657 5.71193 6.46217
1 1.76237 8.49216 8.2279
1 1.60406 5.8922 6.29498
1 5.37447 7.67084 8.12116
1 5.49126 5.75521 6.72682
1 8.14027 7.21542 7.28111
1 10.9621 6.20565 6.52933
1 11.6994 8.34009 7.48235
1 0.462897 8.87238 4.91588
1 1.61482 10.9577 7.93722
1 4.03181 8.01311 5.54836
1 3.52464 7.62383 5.05819
1 10.0714 9.96841 7.64525
1 7.76537 11.151 8.99072
1 4.13381 9.76152 6.60114
1 10.9578 11.2616 7.69219
1 12.6838 6.04999 8.9276
1 0.448266 7.27706 11.3132
1 2.59368 6.47135 8.95433
1 3.86552 7.02461 11.1387
1 6.2556 6.69015 10.489
1 6.65182 8.33563 10.9656
1 10.0793 7.57901 10.3802
1 9.46306 6.97011 10.1881
1 12.4355 9.16503 10.0937
1 2.8698 11.4173 9.62386
1 2.67797 9.26559 10.668
1 5.06763 10.6947 12.1561
1 4.93495 10.2022 8.94501
1 8.24888 12.266 3.86273
1 9.03619 9.92882 9.03895
1 10.8047 11.0263 10.6501
128
 Atoms. Timestep: 600
1 1.02113 12.6013 1.55361
1 2.67542 3.1615 3.10441
1 4.19044 3.25823 0.239504
1 7.09147 12.3178 0.0535987
2 1.10284 3.7919 6.24626
1 6.95786 5.55914 0.510534
1 9.60391 12.6712 12.5222
1 7.81863 2.69692 2.41317
1 3.70142 0.779625 1.76695
1 2.99022 6.06724 1.5674
1 5.47129 3.26306 0.234219
1 5.6046 5.16519 3.87868
1 8.86831 2.37352 2.46819
1 2.10067 1.95277 5.29719
1 9.12898 4.93674 11.026
1 12.619 7.83284 10.444
1 11.3741 11.3877 7.08701
1 1.30576 1.23419 9.23062
1 12.068 0.633234 1.13508
1 3.58754 1.54129 6.04333
1 9.69239 12.1273 5.41761
1 1.58885 3.9486 3.83596
1 6.9183 4.42585 6.31085
1 0.664761 2.374 3.48845
1 7.36671 2.51655 0.440775
1 0.365076 4.59305 0.30969
1 2.72332 9.60375 3.57746
1 9.00388 4.25105 4.60849
1 6.16771 1.45522 4.33091
1 6.83543 5.47527 9.1085
1 9.89419 10.757 3.32052
1 8.96527 4.73108 3.54592
1 9.74026 1.6719 10.3838
1 12.3526 1.93439 8.00479
2 9.72603 2.17835 2.83867
1 5.36413 12.073 6.23013
1 6.02578 1.05396 8.75801
1 1.50909 4.50018 11.5901
1 8.73283 0.321126 4.75608
1 10.4117 2.27121 10.9438
1 1.79156 5.67625 6.32911
1 6.46416 7.26094 7.84502
1 6.62633 1.44795 3.51647
1 5.84663 3.93095 8.82855
2 11.701 12.426 12.1323
1 7.35665 3.39312 0.141672
1 10.2456 1.73253 3.32798
1 11.0655 3.789 4.05385
1 12.5836 12.0518 9.96706
1 0.508611 1.70357 12.3199
1 4.72077 6.99425 11.4536
1 6.22346 12.3211 10.1708
1 4.01134 1.57653 10.4738
1 7.32853 2.34972 10.6301
1 8.46388 0.794591 7.7939
1 9.27995 0.208002 12.0318
1 7.54592 3.66579 11.5797
1 9.84732 2.55021 1.98549
1 0.743969 10.2536 5.53865
1 2.94593 3.28213 9.35556
1 11.5302 1.58211 2.57446
1 9.57975 3.33921 6.48368
1 9.86398 3.24165 6.98737
1 11.6458 5.1508 10.0301
1 10.9543 6.87224 1.36544
1 3.01946 9.48809 1.89289
1 8.93155 7.16838 3.40334
1 11.0492 2.57845 6.20911
1 11.2627 4.95095 9.763
1 8.06259 10.938 1.1041
1 2.29507 6.72924 2.10375
1 10.6619 4.28947 8.86287
1 12.0935 8.43469 11.7593
1 10.0674 9.98837 8.08321
1 1.73499 9.19657 1.22788
1 4.79973 9.04309 4.63799
1 4.69767 5.3676 7.16778
1 7.02673 9.87854 2.66811
1 8.32109 9.72155 12.1445
1 8.84329 11.9456 2.66122
1 12.3916 5.44738 4.04798
1 11.68 8.41954 5.87093
1 10.1338 3.38538 0.481144
1 8.55232 10.8369 5.81065
1 6.90074 8.49697 2.96567
1 7.06662 6.79438 5.74769
1 9.39826 7.55134 1.99726
1 9.92472 8.62091 4.54866
1 11.8826 10.3664 1.78099
1 3.80747 0.156738 4.12638
1 3.69398 9.77437 12.31
1 2.66278 6.0909 7.85587
1 6.67082 0.672421 1.26128
1 12.6761 12.1458 3.23882
1 9.49215 9.62399 4.6166
1 1.37692 11.9678 1.03113
1 2.80948 7.27193 8.98603
1 2.59075 7.38207 9.34198
1 0.496222 4.42476 7.08441
1 5.15506 9.09946 7.03973
1 6.22769 2.15274 9.2165
1 7.99143 6.8641 7.0772
1 10.3691 6.49434 7.24419
1 11.477 6.5395 7.42465
1 4.83025 6.91862 4.20208
1 2.30949 10.6699 6.57079
1 4.1008 5.01027 6.58243
1 2.96062 4.12932 2.74605
1 0.694883 8.88399 10.28
1 6.34875 7.63176 10.4455
1 0.639539 9.7496 7.54235
1 1.09679 10.3789 3.53804
1 12.6324 4.23639 9.56592
1 11.5838 8.10502 11.5519
1 2.02949 8.57564 7.38433
1 1.87138 6.91606 10.2232
1 6.48898 8.6616 11.5322
1 6.05237 7.42376 11.3843
1 9.34572 6.58369 9.92963
1 9.56592 7.36578 10.1532
1 12.5028 9.26334 9.36894
1 2.71691 12.0483 10.8221
1 3.57002 9.90091 11.1792
1 5.59201 8.81389 1.61811
1 4.00074 10.4207 8.73262
1 8.99537 0.88724 8.80251
1 8.80484 9.36677 8.02949
1 10.2411 11.0023 10.7604
128
 Atoms. Timestep: 700
1 4.06753 5.83459 5.9605
1 3.3208 5.8172 1.31081
1 5.66453 8.88704 12.119
1 5.59595 0.530154 0.968311
2 6.27346 11.7745 10.2977
1 7.12856 10.12 10.8685
1 1.65552 7.48572 3.74064
1 3.56783 2.82278 2.24055
1 6.56438 12.1789 4.9997
1 4.61912 8.22377 2.35465
1 4.38998 5.14469 1.31686
1 5.84581 3.88088 4.46795
1 0.507635 0.0304061 5.4292
1 2.05119 0.612654 10.9153
1 7.1458 6.53281 11.6742
1 2.87472 4.89459 7.09631
1 9.64429 0.44846 10.8698
1 1.62724 12.5714 9.12049
1 0.575896 11.0778 10.2452
1 4.51615 12.4901 8.19204
1 6.4832 7.98916 12.0826
1 4.68 5.47884 0.528067
1 8.39896 3.71005 6.90677
1 10.7735 0.19746 2.77948
1 11.0207 0.369186 11.4455
1 10.1217 0.0855354 11.1608
1 7.81004 5.62663 5.01767
1 11.3151 3.8258 2.4177
1 9.79575 11.1593 2.33295
1 5.22342 1.85253 9.08067
1 6.69942 1.44632 0.684436
1 9.15671 2.71805 1.11644
1 5.57962 7.13075 6.14226
1 11.1782 1.29414 7.95587
2 10.1017 1.57885 10.7887
1 6.15358 8.62389 1.44416
1 5.54234 4.39052 0.774993
1 12.3128 8.13987 2.66067
1 6.63835 12.5372 11.8648
1 11.4457 3.9376 11.4141
1 3.4139 8.68718 3.54588
1 6.94486 10.0353 11.887
1 4.83818 2.21708 10.1447
1 9.50671 2.30568 1.14475
2 2.68482 2.70091 0.532852
1 5.4061 2.81661 11.8691
1 9.92992 1.43735 1.17813
1 1.60352 5.44081 1.77325
1 12.058 11.6123 12.1716
1 12.3869 1.28973 0.825791
1 11.929 7.62582 3.43023
1 6.1182 8.61484 8.2822
1 2.1857 3.17646 0.534815
1 4.4237 8.76713 6.63165
1 9.45953 11.565 7.40985
1 8.56243 1.45825 7.04351
1 8.66696 3.79203 7.42744
1 2.65602 11.7706 5.52919
1 12.0133 6.41116 1.76445
1 12.1358 3.50852 9.58406
1 1.33849 2.01621 2.32429
1 1.13682 1.47572 9.31389
1 5.28753 6.05939 10.8278
1 3.83377 8.76358 8.43141
1 8.70234 7.79286 3.05416
1 3.71457 0.0725438 2.09993
1 0.848196 8.71473 7.31591
1 11.6472 7.48926 1.93304
1 6.65618 1.20081 11.5901
1 7.04838 11.5589 12.5587
1 7.88599 9.20191 3.20107
1 9.7542 8.36503 4.93289
1 8.80502 0.85748 7.62877
1 1.89272 3.57955 7.4875
1 1.55067 9.06959 2.18005
1 2.84725 7.28755 6.479
1 3.36928 3.21461 6.46302
1 1.85967 9.7869 10.3923
1 5.21402 8.38617 0.0502521
1 8.85345 10.0358 4.3451
1 4.868 5.10568 4.69652
1 1.5975 2.84311 1.9084
1 12.4306 6.91515 0.054627
1 5.94942 12.6133 6.94702
1 5.93036 10.342 3.08684
1 7.80477 8.98168 6.62193
1 7.98147 5.83556 12.0334
1 8.7767 11.9794 4.98529
1 10.9051 10.3352 1.8322
1 3.46061 11.0539 1.18872
1 4.494 5.40808 9.403
1 8.81078 7.29772 3.73701
1 3.19565 10.2717 9.05434
1 12.003 10.0792 5.31635
1 11.2943 4.71826 4.678
1 5.28653 12.6936 8.36801
1 4.65935 12.6769 6.62713
1 1.81136 8.64431 1.34913
1 1.16168 2.56825 5.48264
1 5.95752 10.0828 6.07643
1 5.08562 11.7248 11.2361
1 8.78452 3.66894 10.8258
1 5.86191 7.3659 8.44824
1 11.6155 5.52232 6.22607
1 9.66114 2.74104 4.54703
1 3.62152 11.8798 5.0767
1 4.32799 4.34799 4.69723
1 3.76625 0.441773 1.02226
1 12.4403 10.5205 0.495524
1 1.55492 4.1022 11.6805
1 11.744 10.54 9.09768
1 4.73952 8.50638 11.7355
1 6.46857 4.16122 10.6064
1 8.01939 10.7256 3.11981
1 1.11258 12.4048 1.94465
1 9.09969 6.92941 8.37557
1 11.4133 11.2744 12.1047
1 3.37444 5.84697 9.84833
1 9.58819 7.71721 11.4343
1 6.40949 8.46874 8.63388
1 0.0833019 11.4553 6.02951
1 2.09434 0.199722 12.5672
1 5.08948 11.0588 0.50174
1 5.07025 4.98386 2.59094
1 2.72473 10.6055 8.15048
1 6.09905 0.762889 10.1361
1 9.37348 9.44499 8.09334
1 9.20366 10.4058 11.0119
128
 Atoms. Timestep: 800
1 6.89476 10.8461 8.75308
1 3.6318 9.21234 10.4567
1 4.2122 10.2951 8.28506
1 6.22797 4.08916 4.53101
2 2.97915 6.10317 7.42822
1 11.8685 2.04178 3.40102
1 7.32025 2.47822 7.03273
1 12.5878 1.06047 4.59971
1 2.77868 2.4099 9.4277
1 5.98722 9.38818 5.19379
1 3.4483 9.708 2.33927
1 8.8896 12.546 5.36151
1 7.69017 10.8494 10.9203
1 1.39058 12.0913 4.27301
1 7.69047 6.40056 1.49157
1 1.65358 2.69744 6.18918
1 6.24083 3.43258 12.6643
1 1.92999 0.602885 7.45865
1 10.7441 6.26359 9.89494
1 0.00545505 0.80356 7.38541
1 2.30126 2.87693 6.48363
1 7.48256 6.00942 7.01022
1 10.7891 3.67858 7.20968
1 8.14754 11.2056 3.83102
1 4.6415 7.37316 7.26662
1 1.05743 12.2754 10.1422
1 10.9306 6.19319 1.88384
1 2.06461 3.36711 0.834118
1 2.18281 10.8037 0.0395591
1 3.17796 1.55239 9.54796
1 6.62522 5.36542 11.5839
1 0.393356 8.73083 7.7714
1 10.8738 3.9244 4.30036
1 12.1507 1.00548 8.32402
2 10.39 1.97587 5.64906
1 8.13151 5.43433 0.0690446
1 6.36066 6.50535 6.32225
1 10.9166 9.98607 5.82367
1 6.63035 12.4386 7.32724
1 1.81274 10.3147 10.6476
1 5.4136 12.721 2.40503
1 9.28129 12.4808 2.98454
1 0.914326 4.93869 4.52827
1 11.2872 10.8633 3.19298
2 6.47286 12.681 12.4326
1 2.35209 2.53652 12.2439
1 8.34187 5.0089 4.01814
1 5.1108 5.74796 11.8279
1 0.0689863 7.92257 1.47892
1 12.224 1.07838 0.810864
1 5.42248 10.7105 7.57589
1 6.5366 5.94345 7.01578
1 11.7908 7.35625 12.7184
1 0.35508 7.03376 12.6089
1 11.9333 10.3354 7.34445
1 2.1343 6.79879 4.34288
1 10.0571 4.62659 4.6926
1 8.95019 10.5161 8.52108
1 9.46719 6.91661 10.6056
1 5.31949 2.34578 8.28401
1 5.66028 3.45083 8.18169
1 4.97416 0.0307377 11.1153
1 1.51285 7.87431 2.14636
1 9.90604 9.80772 7.53205
1 5.85848 7.20515 3.64998
1 4.09133 3.11798 2.73204
1 5.75942 7.56756 10.3947
1 9.1451 12.3285 2.86333
1 1.38727 4.92427 10.3184
1 8.0503 11.7149 0.437881
1 12.5327 3.00732 2.73813
1 7.52558 11.4523 4.33857
1 6.94638 0.433804 1.4789
1 6.73859 7.74381 4.57447
1 0.817866 9.93443 4.83326
1 10.9832 6.57291 7.00873
1 0.901846 11.1078 6.18133
1 9.15888 10.7258 7.9947
1 11.0328 4.72918 3.56996
1 8.6489 6.92569 7.35928
1 12.3092 6.14324 5.70007
1 2.91192 12.0414 8.23017
1 2.22201 11.1544 8.52514
1 9.13464 9.00809 7.58125
1 5.49103 12.6738 1.45305
1 8.67607 8.34266 5.53674
1 7.919 4.76927 9.74351
1 9.71705 5.03407 5.56342
1 8.91182 8.85709 1.75425
1 2.19475 6.33552 11.197
1 5.07297 0.20516 7.03703
1 5.13851 10.5323 2.31614
1 11.6522 4.93174 2.32296
1 12.2697 6.01403 6.93255
1 0.459749 2.08732 6.92145
1 5.45936 2.0481 4.69157
1 5.92546 4.80368 7.15376
1 2.02328 10.24 3.55001
1 2.03624 0.992683 2.66323
1 6.09505 9.75361 5.05583
1 0.000112442 9.41533 8.37723
1 9.60214 0.0546038 12.354
1 10.5664 5.08634 10.0901
1 1.33492 3.64152 9.46877
1 1.42724 9.65026 5.48974
1 2.247 12.2007 3.38085
1 5.98867 3.94134 0.399439
1 6.69878 9.6495 12.1518
1 7.91981 0.0950448 12.4517
1 7.79071 0.373015 11.4136
1 10.8801 11.8769 11.123
1 9.35032 9.49498 9.08795
1 2.82737 4.84468 12.1255
1 5.20715 1.2108 4.46981
1 11.014 2.844 11.2979
1 5.0686 4.84149 7.07877
1 4.83318 11.6121 0.483865
1 12.0175 4.89284 8.73544
1 11.8433 10.129 12.3827
1 7.61433 0.53165 8.68944
1 11.76 2.7313 2.77385
1 1.16237 0.731513 10.4113
1 3.32802 11.9104 5.30645
1 6.35961 0.373278 1.93878
1 0.9375 9.23398 5.30239
1 4.74789 12.3949 11.3957
1 11.1483 6.18119 10.1194
1 8.56961 7.4983 12.1684
128
 Atoms. Timestep: 900
1 11.8835 4.42403 10.8494
1 5.11473 10.8018 8.53818
1 3.19176 10.9608 3.99156
1 9.67349 9.87712 4.38162
2 3.08411 6.48495 11.7759
1 3.57944 8.34697 9.09689
1 11.6744 9.75978 7.38016
1 8.90844 11.8607 6.07057
1 12.1399 1.43442 5.89422
1 6.59603 10.1244 7.64147
1 3.66627 11.9596 2.76859